% Model:              Roman - nanowires vs lenght LT.mph
% Version:            COMSOL 5.1.0.234
% Date:               Aug 1 2017, 15:42
% Table:              Accumulated Probe Table 5 - 
% rh                     t                        k1                       Temperature (K), Point: (-5, 5, 207.5)
60                       -1.0000000000000002E-6   0.01                     3.9999999999999996
60                       -9.000000000000002E-7    0.01                     4.000000000000001
60                       -8.000000000000002E-7    0.01                     4.000000000000001
60                       -7.000000000000001E-7    0.01                     3.9999999999999996
60                       -6.000000000000002E-7    0.01                     3.9999999999999996
60                       -5.000000000000001E-7    0.01                     3.9999999999999996
60                       -4.000000000000001E-7    0.01                     4.000000000000001
60                       -3.000000000000001E-7    0.01                     3.9999999999999996
60                       -2.000000000000001E-7    0.01                     3.9999999999999996
60                       -1.000000000000001E-7    0.01                     4.000000000000001
60                       0                        0.01                     3.9999999999999996
60                       9.999999999999989E-8     0.01                     5.685039048792815
60                       2.0E-7                   0.01                     7.256584635094797
60                       2.999999999999999E-7     0.01                     8.746159565556605
60                       4.0E-7                   0.01                     10.17005519377161
60                       4.999999999999999E-7     0.01                     11.533503063621817
60                       6.0E-7                   0.01                     12.828832205871384
60                       7.000000000000001E-7     0.01                     14.055534796538126
60                       8.0E-7                   0.01                     15.216641974681936
60                       9.000000000000001E-7     0.01                     16.315237412431745
60                       1.0000000000000002E-6    0.01                     17.355044280811324
60                       1.1E-6                   0.01                     17.232120870019262
60                       1.2E-6                   0.01                     16.67170159793537
60                       1.2999999999999998E-6    0.01                     16.083304558700377
60                       1.4000000000000001E-6    0.01                     15.4491545984228
60                       1.5E-6                   0.01                     14.847095626357506
60                       1.6E-6                   0.01                     14.275272063824977
60                       1.7000000000000002E-6    0.01                     13.734941275291963
60                       1.8000000000000001E-6    0.01                     13.223027496568525
60                       1.9E-6                   0.01                     12.73681921833842
60                       2.0E-6                   0.01                     12.276181795326252
60                       2.1000000000000002E-6    0.01                     11.832989841586492
60                       2.2E-6                   0.01                     11.410996641661878
60                       2.3E-6                   0.01                     11.011043333704011
60                       2.4000000000000003E-6    0.01                     10.632237586381404
60                       2.5E-6                   0.01                     10.273752218430115
60                       2.6E-6                   0.01                     9.934703526476694
60                       2.7E-6                   0.01                     9.613832753921754
60                       2.8000000000000003E-6    0.01                     9.310303315512249
60                       2.8999999999999998E-6    0.01                     9.023292252363042
60                       3.0000000000000005E-6    0.01                     8.751833439357519
60                       3.1000000000000004E-6    0.01                     8.495057000630263
60                       3.2000000000000003E-6    0.01                     8.25203455961951
60                       3.3E-6                   0.01                     8.022139652972253
60                       3.4E-6                   0.01                     7.804655896382245
60                       3.5E-6                   0.01                     7.599161663374862
60                       3.6E-6                   0.01                     7.404784870076878
60                       3.7000000000000006E-6    0.01                     7.221018479478189
60                       3.8000000000000005E-6    0.01                     7.047137020803603
60                       3.9E-6                   0.01                     6.882686703890575
60                       4.000000000000001E-6     0.01                     6.727074240341255
60                       4.1E-6                   0.01                     6.579886514998096
60                       4.2000000000000004E-6    0.01                     6.440617770535039
60                       4.2999999999999995E-6    0.01                     6.308884566429978
60                       4.4E-6                   0.01                     6.184246145760815
60                       4.500000000000001E-6     0.01                     6.066348321605624
60                       4.6E-6                   0.01                     5.954804194536511
60                       4.700000000000001E-6     0.01                     5.849289684155098
60                       4.8E-6                   0.01                     5.749463873859065
60                       4.9000000000000005E-6    0.01                     5.655032225852731
60                       4.9999999999999996E-6    0.01                     5.565693301491107
60                       5.1E-6                   0.01                     5.481180550253628
60                       5.200000000000001E-6     0.01                     5.4012266418263035
60                       5.3E-6                   0.01                     5.325591054422448
60                       5.400000000000001E-6     0.01                     5.254036156758014
60                       5.5E-6                   0.01                     5.186345376168067
60                       5.600000000000001E-6     0.01                     5.122307116435047
60                       5.7E-6                   0.01                     5.061726678179085
60                       5.8E-6                   0.01                     5.004415405983042
60                       5.900000000000001E-6     0.01                     4.950198469758844
60                       6.0E-6                   0.01                     4.898907506265521
60                       6.100000000000001E-6     0.01                     4.850385662809533
60                       6.2E-6                   0.01                     4.804482577749949
60                       6.300000000000001E-6     0.01                     4.7610576171320815
60                       6.4E-6                   0.01                     4.719976424130675
60                       6.5000000000000004E-6    0.01                     4.681112966135603
60                       6.600000000000001E-6     0.01                     4.64434713953323
60                       6.7E-6                   0.01                     4.6095660366710725
60                       6.799999999999999E-6     0.01                     4.576662263112692
60                       6.9E-6                   0.01                     4.545534695644746
60                       7.000000000000001E-6     0.01                     4.51608728284396
60                       7.1E-6                   0.01                     4.488229473447413
60                       7.2000000000000005E-6    0.01                     4.461875346815131
60                       7.2999999999999996E-6    0.01                     4.436943830005852
60                       7.4E-6                   0.01                     4.413358055206539
60                       7.499999999999999E-6     0.01                     4.391045443392292
60                       7.6E-6                   0.01                     4.369937219466471
60                       7.7E-6                   0.01                     4.349968413557912
60                       7.8E-6                   0.01                     4.331077487098646
60                       7.9E-6                   0.01                     4.313206285046157
60                       8.0E-6                   0.01                     4.296299741151765
60                       8.1E-6                   0.01                     4.280305802649894
60                       8.2E-6                   0.01                     4.2651751930352
60                       8.3E-6                   0.01                     4.250861323010858
60                       8.400000000000001E-6     0.01                     4.237320095842524
60                       8.5E-6                   0.01                     4.224509813258983
60                       8.6E-6                   0.01                     4.21239101299906
60                       8.7E-6                   0.01                     4.200926375017611
60                       8.8E-6                   0.01                     4.190080583909045
60                       8.9E-6                   0.01                     4.179820238593623
60                       9.0E-6                   0.01                     4.1701137343902115
60                       9.100000000000001E-6     0.01                     4.160931177951759
60                       9.2E-6                   0.01                     4.152244285181213
60                       9.3E-6                   0.01                     4.144026302282723
60                       9.4E-6                   0.01                     4.136251916701106
60                       9.5E-6                   0.01                     4.128897184591936
60                       9.6E-6                   0.01                     4.121939452644564
60                       9.7E-6                   0.01                     4.115357291922599
60                       9.800000000000001E-6     0.01                     4.109130428917222
60                       9.9E-6                   0.01                     4.103239685509203
60                       1.0E-5                   0.01                     4.09766691794027
60                       -1.0000000000000002E-6   0.011                    3.9999999999999996
60                       -9.000000000000002E-7    0.011                    4.000000000000001
60                       -8.000000000000002E-7    0.011                    4.000000000000001
60                       -7.000000000000001E-7    0.011                    3.9999999999999996
60                       -6.000000000000002E-7    0.011                    3.9999999999999996
60                       -5.000000000000001E-7    0.011                    3.9999999999999996
60                       -4.000000000000001E-7    0.011                    3.9999999999999996
60                       -3.000000000000001E-7    0.011                    3.9999999999999987
60                       -2.000000000000001E-7    0.011                    3.9999999999999996
60                       -1.000000000000001E-7    0.011                    3.9999999999999996
60                       0                        0.011                    3.9999999999999996
60                       9.999999999999989E-8     0.011                    5.679025306421077
60                       2.0E-7                   0.011                    7.2353726979230855
60                       2.999999999999999E-7     0.011                    8.703584085458779
60                       4.0E-7                   0.011                    10.101421254527114
60                       4.999999999999999E-7     0.011                    11.434816521665416
60                       6.0E-7                   0.011                    12.695769020511058
60                       7.000000000000001E-7     0.011                    13.884109647408572
60                       8.0E-7                   0.011                    15.003283953151582
60                       9.000000000000001E-7     0.011                    16.056884674532963
60                       1.0000000000000002E-6    0.011                    17.049179805115166
60                       1.1E-6                   0.011                    16.87994165396761
60                       1.2E-6                   0.011                    16.2762612516176
60                       1.2999999999999998E-6    0.011                    15.651581230126583
60                       1.4000000000000001E-6    0.011                    14.987619128171318
60                       1.5E-6                   0.011                    14.360426494951762
60                       1.6E-6                   0.011                    13.76744651869336
60                       1.7000000000000002E-6    0.011                    13.209902463297206
60                       1.8000000000000001E-6    0.011                    12.68418774609841
60                       1.9E-6                   0.011                    12.187147146421777
60                       2.0E-6                   0.011                    11.718488863520232
60                       2.1000000000000002E-6    0.011                    11.26911674131365
60                       2.2E-6                   0.011                    10.843112347723512
60                       2.3E-6                   0.011                    10.441289703058485
60                       2.4000000000000003E-6    0.011                    10.062721287000963
60                       2.5E-6                   0.011                    9.706290703735778
60                       2.6E-6                   0.011                    9.370591267780515
60                       2.7E-6                   0.011                    9.054600472974872
60                       2.8000000000000003E-6    0.011                    8.757320065856598
60                       2.8999999999999998E-6    0.011                    8.47756858563226
60                       3.0000000000000005E-6    0.011                    8.214282077078229
60                       3.1000000000000004E-6    0.011                    7.966481609259034
60                       3.2000000000000003E-6    0.011                    7.733111620219852
60                       3.3E-6                   0.011                    7.51345729924323
60                       3.4E-6                   0.011                    7.306705710164722
60                       3.5E-6                   0.011                    7.112379238328562
60                       3.6E-6                   0.011                    6.929494824008523
60                       3.7000000000000006E-6    0.011                    6.7574832422697035
60                       3.8000000000000005E-6    0.011                    6.595535113901425
60                       3.9E-6                   0.011                    6.443147268434487
60                       4.000000000000001E-6     0.011                    6.299665281779958
60                       4.1E-6                   0.011                    6.164636344285464
60                       4.2000000000000004E-6    0.011                    6.037508428018453
60                       4.2999999999999995E-6    0.011                    5.917865496529732
60                       4.4E-6                   0.011                    5.805231243327837
60                       4.500000000000001E-6     0.011                    5.699225127693772
60                       4.6E-6                   0.011                    5.599433190839677
60                       4.700000000000001E-6     0.011                    5.50551067460312
60                       4.8E-6                   0.011                    5.417096473256817
60                       4.9000000000000005E-6    0.011                    5.333880373327751
60                       4.9999999999999996E-6    0.011                    5.255546296380523
60                       5.1E-6                   0.011                    5.181816303544587
60                       5.200000000000001E-6     0.011                    5.112412900237237
60                       5.3E-6                   0.011                    5.04708778773053
60                       5.400000000000001E-6     0.011                    4.985596778195766
60                       5.5E-6                   0.011                    4.927718524953385
60                       5.600000000000001E-6     0.011                    4.873237777074389
60                       5.7E-6                   0.011                    4.821957527941667
60                       5.8E-6                   0.011                    4.773687790010458
60                       5.900000000000001E-6     0.011                    4.72825342676099
60                       6.0E-6                   0.011                    4.6854865872787
60                       6.100000000000001E-6     0.011                    4.645231712770195
60                       6.2E-6                   0.011                    4.607340402562611
60                       6.300000000000001E-6     0.011                    4.571674575972854
60                       6.4E-6                   0.011                    4.538102957843998
60                       6.5000000000000004E-6    0.011                    4.506503040239998
60                       6.600000000000001E-6     0.011                    4.476758650406517
60                       6.7E-6                   0.011                    4.448761135302909
60                       6.799999999999999E-6     0.011                    4.422407656230396
60                       6.9E-6                   0.011                    4.397601873448908
60                       7.000000000000001E-6     0.011                    4.374252731464808
60                       7.1E-6                   0.011                    4.352274825078925
60                       7.2000000000000005E-6    0.011                    4.331587518432292
60                       7.2999999999999996E-6    0.011                    4.312115110776157
60                       7.4E-6                   0.011                    4.293786184673273
60                       7.499999999999999E-6     0.011                    4.276533648357623
60                       7.6E-6                   0.011                    4.2602942430947985
60                       7.7E-6                   0.011                    4.245008511819636
60                       7.8E-6                   0.011                    4.230620418592765
60                       7.9E-6                   0.011                    4.21707727540067
60                       8.0E-6                   0.011                    4.204329441865122
60                       8.1E-6                   0.011                    4.192330230452214
60                       8.2E-6                   0.011                    4.18103566472049
60                       8.3E-6                   0.011                    4.1704043756035585
60                       8.400000000000001E-6     0.011                    4.160397403239029
60                       8.5E-6                   0.011                    4.150978092066807
60                       8.6E-6                   0.011                    4.142111925811211
60                       8.7E-6                   0.011                    4.133766425964273
60                       8.8E-6                   0.011                    4.125911012541299
60                       8.9E-6                   0.011                    4.118516908484275
60                       9.0E-6                   0.011                    4.111557020880833
60                       9.100000000000001E-6     0.011                    4.105005852540829
60                       9.2E-6                   0.011                    4.098839399781141
60                       9.3E-6                   0.011                    4.093035071625622
60                       9.4E-6                   0.011                    4.0875716012367915
60                       9.5E-6                   0.011                    4.0824289727092475
60                       9.6E-6                   0.011                    4.077588343912614
60                       9.7E-6                   0.011                    4.0730319805621065
60                       9.800000000000001E-6     0.011                    4.068743188723817
60                       9.9E-6                   0.011                    4.064706255699259
60                       1.0E-5                   0.011                    4.060906390796589
60                       -1.0000000000000002E-6   0.012                    3.9999999999999996
60                       -9.000000000000002E-7    0.012                    4.000000000000001
60                       -8.000000000000002E-7    0.012                    4.000000000000001
60                       -7.000000000000001E-7    0.012                    3.9999999999999996
60                       -6.000000000000002E-7    0.012                    3.9999999999999996
60                       -5.000000000000001E-7    0.012                    4.000000000000001
60                       -4.000000000000001E-7    0.012                    3.9999999999999996
60                       -3.000000000000001E-7    0.012                    3.9999999999999996
60                       -2.000000000000001E-7    0.012                    3.9999999999999996
60                       -1.000000000000001E-7    0.012                    3.9999999999999987
60                       0                        0.012                    4.000000000000001
60                       9.999999999999989E-8     0.012                    5.6731560335357685
60                       2.0E-7                   0.012                    7.214735122847741
60                       2.999999999999999E-7     0.012                    8.662298575184108
60                       4.0E-7                   0.012                    10.035044757466634
60                       4.999999999999999E-7     0.012                    11.339627178258986
60                       6.0E-7                   0.012                    12.567763507405747
60                       7.000000000000001E-7     0.012                    13.71965510767371
60                       8.0E-7                   0.012                    14.799165043979015
60                       9.000000000000001E-7     0.012                    15.810402069585365
60                       1.0000000000000002E-6    0.012                    16.758178352442112
60                       1.1E-6                   0.012                    16.54590672666497
60                       1.2E-6                   0.012                    15.902501136599295
60                       1.2999999999999998E-6    0.012                    15.245247877598556
60                       1.4000000000000001E-6    0.012                    14.555094931774745
60                       1.5E-6                   0.012                    13.90636863776236
60                       1.6E-6                   0.012                    13.295768894385251
60                       1.7000000000000002E-6    0.012                    12.724440955008733
60                       1.8000000000000001E-6    0.012                    12.188231355294096
60                       1.9E-6                   0.012                    11.683532289950792
60                       2.0E-6                   0.012                    11.209870795122908
60                       2.1000000000000002E-6    0.012                    10.757216771711454
60                       2.2E-6                   0.012                    10.329944332278094
60                       2.3E-6                   0.012                    9.928818051800697
60                       2.4000000000000003E-6    0.012                    9.552749466269047
60                       2.5E-6                   0.012                    9.200417312958388
60                       2.6E-6                   0.012                    8.87018654782021
60                       2.7E-6                   0.012                    8.560880513056123
60                       2.8000000000000003E-6    0.012                    8.271353352119926
60                       2.8999999999999998E-6    0.012                    8.00025648749402
60                       3.0000000000000005E-6    0.012                    7.7463821449168435
60                       3.1000000000000004E-6    0.012                    7.5086249361464565
60                       3.2000000000000003E-6    0.012                    7.285800356736738
60                       3.3E-6                   0.012                    7.077110138355357
60                       3.4E-6                   0.012                    6.8816503287354065
60                       3.5E-6                   0.012                    6.698891810207419
60                       3.6E-6                   0.012                    6.527749544746165
60                       3.7000000000000006E-6    0.012                    6.3675986579549075
60                       3.8000000000000005E-6    0.012                    6.217555177837814
60                       3.9E-6                   0.012                    6.077073499546222
60                       4.000000000000001E-6     0.012                    5.945446960279101
60                       4.1E-6                   0.012                    5.822190065207228
60                       4.2000000000000004E-6    0.012                    5.706712909349422
60                       4.2999999999999995E-6    0.012                    5.598573794771497
60                       4.4E-6                   0.012                    5.497268722888116
60                       4.500000000000001E-6     0.012                    5.402397518248146
60                       4.6E-6                   0.012                    5.313526443915268
60                       4.700000000000001E-6     0.012                    5.230296445111666
60                       4.8E-6                   0.012                    5.152332905125405
60                       4.9000000000000005E-6    0.012                    5.079315891308271
60                       4.9999999999999996E-6    0.012                    5.010920752730209
60                       5.1E-6                   0.012                    4.946863641296394
60                       5.200000000000001E-6     0.012                    4.886862361997094
60                       5.3E-6                   0.012                    4.830665814785116
60                       5.400000000000001E-6     0.012                    4.778028133725752
60                       5.5E-6                   0.012                    4.728727663937119
60                       5.600000000000001E-6     0.012                    4.682549818331872
60                       5.7E-6                   0.012                    4.639299247266538
60                       5.8E-6                   0.012                    4.598788420464669
60                       5.900000000000001E-6     0.012                    4.560845376158566
60                       6.0E-6                   0.012                    4.525306070198965
60                       6.100000000000001E-6     0.012                    4.492019261527345
60                       6.2E-6                   0.012                    4.460841346189588
60                       6.300000000000001E-6     0.012                    4.431639393497133
60                       6.4E-6                   0.012                    4.4042876242254865
60                       6.5000000000000004E-6    0.012                    4.378669257567551
60                       6.600000000000001E-6     0.012                    4.354674081634084
60                       6.7E-6                   0.012                    4.332199540157078
60                       6.799999999999999E-6     0.012                    4.311149032467004
60                       6.9E-6                   0.012                    4.291432518173256
60                       7.000000000000001E-6     0.012                    4.2729653076082785
60                       7.1E-6                   0.012                    4.255668364475983
60                       7.2000000000000005E-6    0.012                    4.239467428892975
60                       7.2999999999999996E-6    0.012                    4.224293134029302
60                       7.4E-6                   0.012                    4.210080357105399
60                       7.499999999999999E-6     0.012                    4.1967682244451705
60                       7.6E-6                   0.012                    4.184299620747868
60                       7.7E-6                   0.012                    4.172621129960361
60                       7.8E-6                   0.012                    4.161682656150133
60                       7.9E-6                   0.012                    4.151437330101248
60                       8.0E-6                   0.012                    4.1418412102851265
60                       8.1E-6                   0.012                    4.132853173780801
60                       8.2E-6                   0.012                    4.124434675879805
60                       8.3E-6                   0.012                    4.116549636659757
60                       8.400000000000001E-6     0.012                    4.109164244423647
60                       8.5E-6                   0.012                    4.102246844605885